512
 Atoms. Timestep: 0
1 6.37148 23.8986 23.2469
1 18.5254 13.8485 16.6541
1 25.4278 3.06505 12.1985
1 25.6574 22.5896 1.18278
1 23.5962 2.87021 16.4509
1 13.2707 12.5126 20.439
1 5.27618 13.4843 14.8651
1 10.7691 5.30599 16.0847
1 4.35634 4.1802 11.3517
1 23.8061 18.1086 13.1025
1 24.0416 1.02874 5.39719
1 4.18177 0.858806 19.074
1 10.2516 15.475 0.242283
1 13.0937 9.89507 14.8147
1 3.87278 7.12023 16.338
1 5.303 20.4726 19.1428
1 24.6174 3.24956 22.4012
1 16.7085 7.62581 4.91052
1 13.2881 7.96963 0.998968
1 9.04754 9.89148 4.45445
1 25.2448 0.320943 2.41095
1 1.72784 24.3295 11.2769
1 20.0496 6.83381 25.2968
1 10.0618 23.9241 9.36417
1 9.0602 6.14923 3.88062
1 6.84202 17.7746 9.9638
1 1.7473 3.03555 2.2068
1 4.11756 17.2862 19.8385
1 24.2321 6.1062 1.89406
1 3.76208 16.0574 5.42114
1 1.92012 20.7027 0.120384
1 19.1843 2.62367 11.6814
1 13.006 10.9274 11.3961
1 11.5161 0.0632523 7.78465
1 9.76905 12.7094 15.8842
1 16.6427 4.74897 22.8642
1 20.2919 25.077 0.903607
1 13.067 15.1086 3.11754
1 8.73693 10.9332 18.0267
1 22.4775 10.5264 4.90289
1 1.22384 16.8752 0.185021
1 7.89957 22.4931 3.9962
1 7.83722 5.60738 10.1577
1 23.7424 15.4046 11.4526
1 21.3197 1.30299 9.29089
1 17.7906 21.3138 8.19936
1 12.3172 24.5006 21.6164
1 23.3159 0.271209 11.603
1 22.643 22.4501 15.4773
1 24.5053 20.4907 24.6496
1 23.8363 8.48177 17.0274
1 5.23778 0.280428 5.89343
1 12.6206 0.713642 2.1642
1 1.17292 16.6953 6.8898
1 0.352617 6.9216 25.5737
1 13.5573 22.5089 23.7492
1 2.16775 16.2671 17.945
1 12.6984 24.7388 15.4939
1 20.5071 21.4674 17.748
1 15.4053 24.0198 20.1129
1 20.1634 15.003 10.4621
1 0.995303 6.22278 17.5911
1 15.8161 4.49751 18.6778
1 1.64455 24.45 20.0554
1 13.4678 10.067 6.27893
1 1.09175 1.36347 25.097
1 25.6039 13.0647 7.13844
1 11.35 7.71395 14.0738
1 20.4069 7.54373 12.0052
1 20.2325 14.0089 5.45957
1 5.51854 13.4046 25.5949
1 25.3278 23.2899 17.1688
1 24.5004 3.42749 8.28481
1 13.0261 2.23203 16.6644
1 5.86028 1.14252 22.9922
1 22.8064 23.0794 24.2658
1 11.4195 25.6959 11.9707
1 16.5562 8.63203 18.675
1 22.3608 2.82049 19.6755
1 8.34692 0.0190085 3.52753
1 1.6388 2.52047 6.26083
1 15.3716 0.687018 2.62521
1 9.67457 17.8791 16.9666
1 5.96717 11.7588 21.0964
1 15.8833 16.8074 22.7021
1 7.3203 23.9298 6.52753
1 4.69429 3.76778 15.0191
1 17.9268 24.521 3.07206
1 0.29902 0.760075 8.85373
1 10.5444 2.55516 25.0533
1 14.156 23.2526 3.1207
1 25.6372 8.88353 6.59409
1 4.77842 23.4514 20.0967
1 7.16728 25.2025 9.32988
1 18.7682 6.97571 21.0582
1 3.95124 21.0078 14.9813
1 21.5737 23.7791 10.1241
1 12.6552 21.9536 10.7049
1 6.91639 1.82999 16.7647
1 2.24134 18.8647 9.66357
1 7.07829 18.8706 21.3506
1 7.70433 9.13526 8.40149
1 12.0035 16.8609 9.37433
1 4.3878 1.24635 11.0546
1 2.24743 0.206732 3.34963
1 2.44485 7.47911 20.0139
1 0.0955557 17.8084 20.0605
1 15.3436 19.2999 14.022
1 6.86631 20.3744 16.3338
1 21.1253 16.7685 22.1343
1 13.3197 19.1668 7.24942
1 1.91041 10.2857 20.7886
1 18.8908 19.8533 13.878
1 18.7521 13.7862 22.2585
1 15.7099 11.9671 8.76629
1 1.21727 6.04418 7.34781
1 16.3343 1.27781 11.1821
1 5.20713 9.98187 14.8098
1 7.28605 5.02562 16.3089
1 16.5567 10.895 24.8157
1 24.9483 25.2063 22.9677
1 15.3328 6.77357 20.8577
1 11.5351 15.4936 6.42762
1 17.7137 0.339257 21.874
1 19.9185 25.0581 16.2386
1 14.3211 0.547989 23.0635
1 21.0143 20.499 23.3307
1 20.9602 4.53918 22.1063
1 6.69787 15.232 1.74299
1 20.8027 10.9796 24.3194
1 22.6369 10.2028 12.1156
1 10.7197 11.9634 23.2821
1 20.4948 13.0322 2.23012
1 19.1506 11.1129 4.28861
1 22.798 21.0602 7.04408
1 19.5114 16.5195 17.6032
1 12.0759 21.982 7.74432
1 18.4901 16.9016 4.95235
1 9.71003 11.7054 10.3763
1 10.1299 23.2307 5.90349
1 8.79152 20.3971 18.5141
1 9.9597 10.9188 13.3808
1 2.79838 11.9927 23.2056
1 24.4269 6.00549 10.9212
1 22.6673 25.1686 17.3495
1 5.2098 10.5483 9.21769
1 20.7014 5.48649 9.46204
1 1.76061 9.18022 2.69284
1 24.1467 12.0002 22.938
1 23.0123 17.157 19.3927
1 1.69312 12.7888 19.2533
1 5.57298 6.38752 2.79971
1 18.1157 16.7194 14.106
1 22.3659 21.1218 11.9964
1 13.3056 13.0526 13.5981
1 4.39216 3.92868 4.89043
1 13.4155 8.78693 18.7798
1 5.60348 21.0225 5.5792
1 15.314 15.3387 13.9409
1 1.31993 22.8862 23.5587
1 0.701686 11.315 12.5204
1 13.3004 17.8548 18.2713
1 19.0352 3.73848 19.261
1 14.5326 12.6606 1.96528
1 21.3368 8.23312 3.3449
1 10.2232 19.8409 21.9341
1 1.9473 13.6994 16.3611
1 5.92161 18.2682 12.9165
1 21.2536 18.4038 4.4056
1 12.274 20.8471 3.70936
1 9.47514 1.24645 18.3411
1 9.11121 16.7844 23.1938
1 19.7338 9.90955 1.23369
1 17.7307 21.0083 24.8211
1 4.07842 9.69686 4.73499
1 9.34394 10.0157 21.2001
1 10.365 20.0021 5.62213
1 21.3132 16.0272 14.525
1 17.8795 13.5507 13.3461
1 0.0670734 20.309 14.1434
1 24.0536 23.3292 4.60728
1 24.6578 18.4807 9.05859
1 11.7263 9.1534 23.6239
1 4.64837 1.17443 2.18036
1 21.2111 5.38761 17.8173
1 6.98316 15.0472 20.0641
1 21.9225 1.38625 22.966
1 20.9081 22.7707 20.8673
1 10.8278 15.0817 13.8364
1 22.7836 23.4043 1.8309
1 15.3987 20.9481 21.7973
1 19.3336 20.2431 6.02319
1 17.227 18.8299 16.4547
1 6.53314 11.3887 6.30677
1 10.1224 17.1476 20.173
1 18.4644 3.71114 7.90871
1 21.4668 1.16205 2.72934
1 15.672 9.65965 2.34643
1 11.9523 10.9518 17.4738
1 15.9793 10.8948 12.8266
1 22.4733 20.1375 1.78188
1 17.869 12.9686 10.5934
1 14.1796 17.6382 5.00088
1 5.29736 18.0055 7.33499
1 23.2724 6.6025 22.4792
1 24.0303 9.7124 2.50893
1 14.328 24.7436 0.0408583
1 16.4519 24.4192 16.6448
1 13.1682 19.1673 11.6552
1 9.01985 1.00373 6.48908
1 13.4854 10.6473 0.173491
1 10.9618 3.31118 4.10402
1 12.8492 12.906 5.10371
1 15.9497 20.4377 10.8599
1 8.28384 9.61727 15.3148
1 8.23411 6.30092 0.907195
1 9.75656 8.74102 11.0021
1 3.71177 15.9583 12.6418
1 5.05483 17.8863 16.0415
1 19.6688 12.1204 18.8563
1 16.7886 17.1196 11.2428
1 0.0664549 21.065 7.15139
1 24.1735 16.9693 23.1322
1 6.87853 21.5701 13.2039
1 19.9079 19.7988 20.4808
1 2.7204 6.77762 4.71686
1 18.7376 1.52563 14.4301
1 20.466 22.8083 4.2602
1 5.47142 6.36657 24.6222
1 12.9611 5.54363 8.91423
1 24.5802 10.1294 19.8388
1 12.4254 2.21051 10.0294
1 9.0858 1.73033 10.0331
1 1.58822 19.601 22.2735
1 5.96914 4.72441 22.2573
1 16.4227 0.679984 8.10279
1 24.0408 6.1474 19.1675
1 18.9122 2.33232 23.3153
1 11.8478 4.79927 18.8415
1 10.1778 17.2667 11.3947
1 6.62121 0.361933 0.234585
1 9.86348 19.4478 2.44819
1 6.49499 13.8599 10.3796
1 18.3558 15.5842 7.79684
1 13.0473 19.0467 21.1407
1 18.6891 7.20442 15.9693
1 2.17053 18.3712 15.3911
1 5.54498 5.92222 18.9364
1 0.425925 20.6251 11.0735
1 22.8269 19.551 21.3552
1 7.07989 18.3645 4.40756
1 23.2587 6.12921 5.10676
1 11.9809 8.92913 8.95151
1 20.3158 2.38582 16.7119
1 3.40582 3.53226 18.2
1 22.9572 8.38695 25.2213
1 12.4931 18.4493 0.961205
1 10.1421 11.0095 7.14898
1 13.2746 22.1502 16.9533
1 18.1904 3.99835 25.5657
1 15.4688 9.0159 8.83233
1 11.0277 14.3471 10.6746
1 8.1486 15.3859 12.889
1 22.8987 15.5731 7.99905
1 2.59736 1.92824 13.3009
1 17.4196 10.7835 16.3872
1 2.82477 19.2622 12.5197
1 16.4529 18.1969 3.11405
1 21.5956 13.115 13.146
1 5.08906 12.5447 3.32894
1 9.93711 25.5271 0.517577
1 23.4123 17.1722 5.72377
1 17.433 8.08669 11.8755
1 3.83367 12.1893 11.1544
1 21.6615 18.8868 9.31325
1 14.0653 6.53095 24.1749
1 6.44542 3.06112 8.94353
1 2.53401 8.82538 13.2877
1 21.5778 4.72938 2.76173
1 14.427 14.495 10.8662
1 8.07876 11.8386 1.06907
1 19.2764 9.91367 10.0649
1 23.3805 11.9108 0.687672
1 13.132 4.41208 2.55236
1 12.6334 17.8382 14.947
1 0.947214 25.159 5.71434
1 2.86941 8.39386 10.5402
1 21.0369 2.69279 25.4855
1 17.1288 7.87498 23.1355
1 12.6124 13.1789 8.2695
1 3.76999 12.1647 6.88398
1 21.1285 14.5757 20.1481
1 3.75766 15.3066 2.41055
1 13.1428 2.61798 13.5495
1 0.72858 9.2171 15.9865
1 11.1987 17.3529 4.02817
1 16.4745 15.5891 17.3785
1 6.86453 17.6982 18.4988
1 18.7262 20.0044 3.07899
1 12.6339 21.5517 14.2197
1 3.46809 11.0022 1.20346
1 7.52507 13.2264 23.3272
1 4.57943 20.9463 22.1184
1 21.153 8.32403 19.2874
1 13.741 15.7782 20.1267
1 0.501445 16.7573 12.683
1 7.80083 23.0846 0.859324
1 15.4655 0.762237 14.7171
1 22.048 13.9397 23.3703
1 25.5421 11.7739 17.0608
1 11.3891 1.73866 21.3002
1 21.8713 18.1331 24.9006
1 6.62557 2.40527 20.3306
1 25.2462 16.2455 16.1588
1 3.40455 18.8244 3.075
1 10.4523 14.1505 20.687
1 12.3239 7.12424 21.1666
1 24.2278 12.3555 10.656
1 8.24109 8.23699 23.9058
1 18.8261 21.9067 11.1581
1 21.6339 19.4545 15.821
1 18.94 3.05008 2.82967
1 6.71368 15.4572 4.68044
1 10.3149 19.7344 9.62807
1 0.22772 10.2262 25.0618
1 1.20246 20.3373 18.8075
1 11.9542 21.9779 19.9235
1 9.4012 7.97186 17.9084
1 14.1308 20.9279 0.791009
1 20.5477 24.2061 12.944
1 4.50121 5.40023 7.87615
1 15.7201 23.4705 10.1853
1 8.9323 4.30732 18.8527
1 14.0828 2.53921 0.0126429
1 18.1872 16.0186 20.4795
1 13.7557 25.3639 9.48603
1 9.25001 2.90185 15.2183
1 12.522 14.5791 16.6211
1 19.155 22.4181 15.1246
1 20.4735 0.454342 19.2988
1 0.638839 13.9027 24.5535
1 2.83423 23.0216 3.68562
1 25.0725 21.7938 21.6292
1 20.9114 9.5853 16.1097
1 13.9848 6.52096 16.3198
1 6.5149 9.31325 2.04504
1 13.2581 0.0743823 5.49741
1 9.75881 19.2479 25.0563
1 10.2247 6.64116 8.32266
1 2.69142 23.0503 17.4287
1 16.0303 12.46 5.93661
1 14.0524 9.54832 21.7948
1 7.21402 3.09972 3.41897
1 6.89495 11.0228 12.2414
1 25.1456 20.0762 4.27373
1 19.95 24.3367 23.5962
1 15.9276 3.73183 4.69095
1 12.8797 16.7264 23.3058
1 9.05638 25.514 22.1619
1 8.51624 4.05966 6.63256
1 17.3061 24.263 13.0715
1 4.47187 22.7165 25.1448
1 1.60395 11.2306 8.88741
1 0.278577 5.08149 4.1329
1 9.4998 4.04642 22.4605
1 19.9263 18.0639 11.8406
1 2.89792 11.553 14.7304
1 9.35467 17.2103 7.46861
1 1.80114 2.19962 21.4417
1 7.69747 21.363 24.1807
1 4.46507 3.13856 25.3317
1 9.65524 23.7348 18.6128
1 21.738 13.7164 16.9074
1 24.7496 19.1226 16.9476
1 21.799 3.76076 6.64271
1 24.1114 13.8974 19.0031
1 23.6236 17.131 2.51234
1 15.8589 3.91093 15.5855
1 4.08045 17.7616 0.072955
1 24.9547 14.0035 13.9757
1 0.411341 7.55074 22.5435
1 23.3997 10.7234 8.17928
1 7.2247 25.3006 19.5595
1 13.908 8.19084 11.3594
1 23.3684 21.3816 18.8718
1 1.0179 3.21983 16.4793
1 3.1087 16.4032 22.5695
1 18.0245 10.5381 22.1902
1 14.2373 23.5295 12.9451
1 25.6836 0.652062 18.4127
1 15.5438 4.1094 7.75675
1 13.3053 4.22556 22.4675
1 0.870037 16.8909 4.19265
1 13.8595 15.2297 0.122099
1 23.7511 10.9028 14.7814
1 0.143873 0.187219 14.8128
1 5.07644 24.3086 13.667
1 7.62623 18.1418 1.01024
1 10.1965 8.93301 0.8307
1 20.5605 8.61773 6.51637
1 14.9576 12.7553 16.7394
1 17.8107 13.7519 0.288128
1 0.306044 3.95007 19.3583
1 24.2125 5.06895 14.102
1 22.1538 7.5189 14.202
1 16.1343 20.8172 4.88001
1 8.69255 6.09902 13.6353
1 23.4672 24.5013 7.55101
1 18.0444 7.55333 8.1036
1 2.15994 24.425 0.400579
1 17.0948 23.9551 24.8389
1 0.378408 14.0082 2.5323
1 23.3663 7.30624 8.15497
1 7.81039 21.9305 21.0293
1 8.85601 14.3558 8.30038
1 10.2499 21.8197 12.4956
1 1.80514 5.62482 14.0639
1 1.65386 4.3069 24.3898
1 23.3951 14.023 4.6136
1 5.10657 12.8103 18.1224
1 5.66824 10.561 23.9427
1 5.23744 6.82436 13.3841
1 18.8369 6.88587 2.5051
1 15.7145 13.3955 21.8517
1 5.58774 20.7285 1.70944
1 16.7182 21.9344 2.02994
1 3.26957 0.342181 16.1862
1 2.45113 3.6979 9.01489
1 16.0326 8.38174 15.0604
1 4.80671 9.6727 19.1495
1 24.5267 23.3461 13.2247
1 23.7048 24.9579 20.2326
1 10.4914 22.5608 23.8065
1 13.1664 13.3941 23.3999
1 23.5772 15.2888 0.274325
1 10.9148 4.35573 12.8755
1 9.93419 21.6829 15.5806
1 3.29519 6.74284 0.75098
1 20.2537 16.4257 2.50087
1 22.223 0.732332 14.532
1 9.71258 18.9302 13.7617
1 18.8451 10.1096 13.7131
1 19.347 5.64785 5.27081
1 15.1132 1.64849 20.1972
1 21.9881 3.66145 11.3896
1 18.7221 24.7485 9.31301
1 4.51263 22.1644 11.435
1 9.38564 24.6916 15.5715
1 22.4727 11.0815 17.7707
1 11.5065 7.37302 5.74562
1 7.55994 3.57535 25.538
1 3.76207 25.5565 8.59789
1 0.29466 14.906 9.64719
1 17.3577 0.960813 18.324
1 2.60839 22.3668 8.47227
1 10.9784 21.8265 1.15932
1 5.02347 8.26079 21.6376
1 3.20934 4.77359 21.5036
1 16.6643 14.8865 3.2572
1 25.4075 9.00965 9.99312
1 7.85047 15.0305 16.9355
1 16.3026 23.537 6.02265
1 12.5908 10.2938 3.13575
1 17.2062 17.964 0.549473
1 15.2528 15.5254 7.01797
1 4.33762 14.2357 21.0719
1 3.65334 14.4631 8.55699
1 20.2298 22.0019 0.442991
1 6.33452 23.3238 17.1221
1 20.7718 4.40471 14.3929
1 7.58357 22.1743 10.1289
1 18.0525 21.755 19.4436
1 5.84841 7.3717 10.1102
1 20.1899 15.5506 24.6242
1 17.6383 5.30272 10.3551
1 16.3569 18.7433 7.03378
1 3.19737 8.74322 24.1112
1 21.682 11.5662 20.9728
1 25.0254 8.5182 13.0233
1 14.7816 19.2525 24.227
1 6.92513 1.86358 12.2553
1 6.23466 15.9938 23.2816
1 6.63638 7.35728 6.00669
1 0.910786 11.5928 4.33292
1 2.63065 19.1876 6.307
1 8.69573 6.6542 20.7776
1 12.7195 3.55737 6.32322
1 11.1801 12.8883 1.42907
1 16.7775 12.9657 19.0713
1 7.82862 20.019 7.70832
1 3.15272 25.1909 23.1198
1 11.1684 24.0942 3.22346
1 20.5798 24.9431 6.89047
1 16.7062 7.39931 0.2005
1 23.4064 0.757468 0.0293632
1 3.35973 8.10472 7.23542
1 16.1313 18.5816 20.1107
1 17.9755 5.57097 13.6088
1 18.0149 1.77569 5.51362
1 18.8124 18.3872 22.8785
1 12.7436 25.433 18.8919
1 11.3513 6.17506 24.3937
1 21.0523 13.0188 8.53736
1 13.8499 7.27425 3.75541
1 20.7239 8.79026 22.6163
1 0.545545 14.8851 21.9153
1 9.11968 14.182 3.11548
1 14.3327 5.08641 12.0208
1 24.4356 3.85967 25.5909
1 18.8749 11.4094 7.29399
1 23.9871 3.08646 3.50935
1 8.36667 24.7054 12.2475
512
 Atoms. Timestep: 10000
1 3.25722 20.6072 20.2967
1 18.8894 9.06537 11.7464
1 6.74716 7.50179 9.08327
1 6.68147 18.8797 9.57219
1 15.9323 3.31881 21.0312
1 9.48167 19.2616 21.5031
1 6.07127 21.2292 14.6985
1 15.8332 7.80878 11.3306
1 17.1309 5.43291 13.1957
1 13.3221 6.24166 6.85955
1 23.6357 20.7443 12.8222
1 22.3875 1.54908 15.3186
1 7.14551 23.6894 23.3699
1 10.2101 7.24739 15.925
1 24.8821 10.0634 16.5938
1 8.70219 15.6698 3.7717
1 21.7697 3.91917 2.81519
1 11.3801 19.1529 4.2022
1 9.91849 15.007 0.0916893
1 10.9514 7.68233 1.1328
1 23.3411 22.7923 5.64511
1 22.1999 24.2174 16.5381
1 0.775779 7.37166 22.6731
1 8.00248 2.42804 5.33689
1 4.69721 7.02876 2.83833
1 0.863948 15.2567 13.5051
1 5.11316 6.37275 24.087
1 16.8613 9.23453 14.8588
1 0.122559 11.1541 4.07378
1 5.84198 10.6637 1.23793
1 24.5396 18.6918 0.18342
1 20.2678 4.24168 10.8477
1 21.2675 11.7277 8.26711
1 11.6054 2.17535 10.4752
1 16.3438 24.976 23.6146
1 16.9138 12.5443 3.40377
1 22.6746 1.89807 -0.0230316
1 13.2182 23.5342 6.34656
1 8.23223 1.02898 22.975
1 5.2496 14.6049 1.4187
1 9.88096 10.6751 17.3034
1 4.01955 20.2985 24.7172
1 18.7435 1.44631 12.3528
1 3.40699 11.5595 8.98082
1 2.66175 7.78887 5.25072
1 21.4098 -0.218889 5.40915
1 1.83341 22.2125 -0.137956
1 0.573179 1.41613 11.8533
1 16.6807 14.1524 21.395
1 20.0746 14.1584 20.4949
1 3.85586 3.49353 14.0101
1 23.699 21.4693 22.2045
1 11.464 1.12388 23.2762
1 4.50887 18.9873 7.41528
1 1.17833 4.29646 19.8091
1 15.7943 1.30289 17.6337
1 23.5245 24.311 21.0434
1 14.7301 23.4104 11.048
1 18.392 20.3378 24.2557
1 18.8207 23.43 10.6229
1 12.132 15.1109 2.76814
1 20.7017 1.97868 17.5994
1 18.4555 25.4975 17.3711
1 19.3394 16.8901 19.2632
1 8.57722 9.94163 0.263362
1 6.02206 4.13514 0.717656
1 25.5433 17.1271 7.04229
1 13.6701 8.63162 20.2953
1 22.5122 9.01886 6.26314
1 17.1677 18.1083 0.415263
1 3.28162 9.57459 21.3125
1 23.8491 16.5317 13.2542
1 23.5341 9.32582 10.3492
1 12.9126 3.94724 16.2522
1 6.94973 1.28936 25.5256
1 1.22585 19.1826 5.28764
1 15.7997 24.103 3.97564
1 14.4734 5.7459 19.0638
1 17.1943 6.5033 25.2739
1 9.04188 21.3636 9.08294
1 0.720957 2.13665 1.77374
1 13.5789 0.536611 3.74274
1 5.18392 18.272 19.7395
1 12.4626 11.7412 22.3885
1 16.5072 19.6551 20.7326
1 11.8647 23.719 9.15151
1 10.0741 4.63736 13.9365
1 19.5784 1.49932 2.04157
1 5.79153 22.5027 9.90971
1 19.9516 8.78839 23.9269
1 20.5868 2.36076 8.31598
1 19.8326 12.8952 3.15198
1 2.12915 1.60598 17.7994
1 9.41095 10.2923 9.95658
1 17.3736 6.66487 19.8426
1 11.1333 21.3991 17.086
1 22.4861 23.2184 1.52898
1 3.66713 1.26802 4.81909
1 4.7124 23.8404 21.3721
1 0.347602 18.1606 14.823
1 6.41389 19.2122 23.0815
1 6.52791 4.73337 3.78455
1 11.6452 17.0854 11.2841
1 3.20318 7.59633 8.90194
1 23.2775 0.759098 2.75689
1 5.25416 22.4484 18.3334
1 19.1635 18.6858 15.6201
1 17.3733 1.83258 9.14139
1 12.8312 17.9318 17.2864
1 19.2097 9.38526 18.4462
1 9.02144 22.1716 13.9532
1 3.2671 6.27862 21.5919
1 17.5434 21.1257 12.7837
1 18.7789 12.3585 18.7041
1 14.3349 19.9789 6.19132
1 4.16779 8.93264 11.4702
1 24.8152 25.3427 6.81567
1 6.37957 1.10634 16.3426
1 3.60758 18.8597 17.2698
1 16.4696 15.3956 3.07767
1 19.0403 2.82961 20.8884
1 16.6457 1.23064 14.5524
1 4.64515 23.286 6.95709
1 14.3031 20.98 18.1056
1 17.5569 22.5233 19.0938
1 13.1459 22.7351 14.9095
1 22.4519 15.2295 0.46416
1 22.3124 6.64382 23.5749
1 9.10522 21.5057 5.09028
1 18.1098 17.591 22.8982
1 22.3945 1.35728 11.5259
1 5.56239 10.4886 17.4655
1 -0.00391861 19.3971 22.9244
1 22.319 25.0451 8.2056
1 0.610821 23.6781 19.2148
1 7.99319 19.4101 18.7461
1 11.0105 0.813341 7.67705
1 14.7421 9.76796 23.494
1 9.88637 12.9619 11.177
1 0.927784 6.21576 3.09011
1 15.2488 20.1732 24.6195
1 15.5258 13.1779 10.8738
1 9.06205 19.3708 1.77932
1 3.02609 9.26537 2.43577
1 20.1968 20.8689 18.1706
1 21.6627 8.77139 12.8318
1 21.4032 5.17755 5.74484
1 8.74249 8.05545 23.1267
1 2.82312 2.24278 23.7761
1 15.7993 8.76149 17.8034
1 25.0185 9.80204 13.1091
1 3.36758 4.01393 2.80516
1 23.234 19.2412 5.06616
1 17.988 14.832 12.2438
1 16.6868 18.2562 12.9744
1 1.00654 25.0575 0.21086
1 1.64199 8.4158 19.153
1 1.96796 0.781483 7.45748
1 18.3973 24.8144 6.40721
1 5.84247 16.2033 23.9187
1 25.4941 6.01117 17.8217
1 10.4382 17.3902 18.9246
1 18.9741 5.86751 22.6356
1 11.3517 5.1733 23.2543
1 24.0303 14.0418 7.84301
1 13.9598 12.6923 1.48445
1 21.4079 15.4302 15.8729
1 7.38128 11.7479 19.8354
1 0.146785 1.32807 15.239
1 12.7854 22.7288 3.11356
1 10.4196 25.6982 12.3865
1 9.54917 14.0249 21.3697
1 19.4192 14.7234 5.16934
1 18.7746 11.3569 22.1449
1 7.24429 7.76062 5.10547
1 17.5652 8.41533 22.2781
1 2.88508 20.8885 14.1945
1 14.3023 13.2883 14.6427
1 0.208068 4.98971 10.7553
1 19.2446 16.3944 8.77838
1 4.41885 13.3825 6.69944
1 20.6759 17.6856 3.64783
1 4.89718 7.51609 19.6698
1 3.48782 24.7074 2.18725
1 2.88858 2.8076 10.8833
1 10.7705 6.63035 19.4738
1 24.1508 9.70182 23.7266
1 14.414 22.7979 0.339398
1 8.78817 19.2944 15.3857
1 0.0223402 22.0139 2.79223
1 8.36738 23.0763 16.9121
1 9.82326 0.961207 0.948882
1 16.3577 23.7835 14.3274
1 8.58096 14.6295 7.11817
1 4.56764 13.0387 15.8004
1 0.765391 16.3884 10.4144
1 22.3807 9.62896 2.88056
1 18.5774 11.6544 6.06748
1 7.47768 5.34155 21.766
1 10.6852 9.62777 20.1729
1 18.933 14.0872 23.7765
1 23.7731 5.4098 8.37151
1 16.4298 17.0441 7.54576
1 8.73627 16.2866 9.74666
1 20.7338 7.1845 9.34924
1 21.9368 19.7941 23.9817
1 20.7884 8.41066 20.5847
1 19.8624 17.5362 12.1918
1 11.1704 14.8525 9.10632
1 0.184104 3.15717 4.83115
1 12.3954 19.5811 1.47616
1 15.6155 9.44054 5.54309
1 11.0598 16.5011 6.05245
1 18.9042 9.78227 1.10704
1 8.88125 1.88116 14.8017
1 5.81984 9.23111 23.3495
1 8.92299 15.2738 13.7716
1 7.00678 12.9828 12.4554
1 6.27221 16.0531 12.1439
1 20.2388 3.70827 14.481
1 13.8625 11.1146 17.9206
1 -0.0779115 14.5377 5.05416
1 25.0047 1.70979 20.861
1 9.24903 9.20627 7.23933
1 10.1859 22.4676 20.801
1 6.27365 12.104 3.90097
1 19.824 -0.132972 14.9049
1 18.5489 23.3202 25.2712
1 11.044 11.762 2.66831
1 18.7992 9.57391 8.64871
1 8.35064 18.9065 6.44132
1 9.51739 3.99096 17.228
1 5.87346 10.4665 13.6108
1 1.58916 21.2828 17.3099
1 8.27145 4.03971 24.3513
1 14.024 3.48263 5.20071
1 17.6917 6.00559 2.57646
1 20.5669 7.27163 1.60305
1 7.95433 8.66828 19.4779
1 12.3521 10.8068 11.9342
1 3.25196 21.3274 2.60836
1 9.38152 19.1444 12.0864
1 9.21461 10.031 4.4246
1 19.4741 24.0264 2.49089
1 11.483 16.5236 22.2183
1 18.3844 21.8943 15.954
1 21.8975 8.42957 17.2445
1 4.5566 6.64281 14.3043
1 1.78344 18.7993 8.8808
1 18.2672 22.8522 22.2066
1 15.574 15.8336 15.777
1 24.9568 10.0152 7.54199
1 15.7288 10.8003 8.31712
1 16.7719 2.18543 3.47937
1 5.25382 0.389711 23.2534
1 17.8254 12.3926 0.465742
1 12.7809 18.1348 8.34637
1 6.09509 10.7496 9.27384
1 17.2848 19.7331 17.6296
1 19.4394 7.57117 6.33684
1 16.3605 19.5438 9.89807
1 7.43084 16.1009 21.1076
1 25.816 12.6346 15.0821
1 1.18415 14.2761 7.9679
1 15.3473 23.7999 17.0227
1 22.9529 10.6372 19.2133
1 21.3684 14.8867 11.6206
1 16.5618 22.1194 5.98219
1 19.7901 18.5194 6.4401
1 14.2065 15.811 5.51622
1 5.93512 1.69985 3.06311
1 23.3544 17.1349 10.265
1 17.9802 6.33834 10.0162
1 8.36907 13.0623 16.453
1 1.60658 22.942 5.92909
1 13.9036 12.3347 4.62361
1 6.62796 4.65653 11.8404
1 1.26914 4.20165 15.2368
1 19.306 2.73356 4.87471
1 12.8734 13.823 12.0902
1 8.1358 13.2572 2.05426
1 23.5918 23.9547 10.7687
1 21.8369 12.3178 16.7525
1 13.6333 6.8188 25.6902
1 6.19715 13.2514 21.971
1 0.68414 23.3178 12.714
1 1.35815 7.13986 13.9967
1 23.8947 6.26623 1.23696
1 14.1645 5.05905 22.8539
1 12.5339 14.3848 24.2568
1 11.4694 12.9755 14.9163
1 18.1349 3.80194 17.4212
1 6.72292 17.6726 0.887844
1 8.77494 2.44695 11.8329
1 3.88121 4.39365 16.9641
1 11.7637 20.3292 14.1352
1 15.9176 13.4647 17.7848
1 7.01128 5.3615 18.3405
1 20.0242 21.743 4.6936
1 13.7945 21.3386 8.96451
1 2.89488 14.8655 23.8651
1 3.30491 12.6929 20.1898
1 21.2598 0.819798 20.8984
1 15.3621 20.1501 14.9097
1 12.9521 18.8712 20.0539
1 3.83949 16.5792 9.58147
1 14.4518 6.82529 3.88036
1 16.5777 23.5322 8.54748
1 13.8252 7.14257 13.4328
1 22.7984 18.1507 15.7438
1 8.87605 3.50252 1.87776
1 0.387442 25.2095 3.83764
1 10.5513 24.6458 15.3198
1 24.3856 14.0972 11.0257
1 3.7503 11.8458 23.6432
1 16.8036 12.0833 15.3984
1 6.90305 21.5683 20.9051
1 3.99894 13.4672 12.9673
1 6.89469 13.0751 24.6605
1 21.2307 23.624 12.8297
1 21.3726 20.7753 14.8431
1 24.545 5.97958 5.37298
1 12.6514 12.0963 8.89821
1 14.4331 0.285238 9.17106
1 24.408 22.4652 15.4025
1 24.6098 15.5215 16.327
1 4.07164 16.2238 15.3383
1 4.24663 25.26 18.245
1 9.76013 18.3952 24.6604
1 -0.0205352 21.2291 7.61141
1 4.84959 5.54489 6.15116
1 15.199 0.588331 6.20291
1 20.3298 5.2713 19.8254
1 17.9531 9.31549 3.78928
1 21.1976 11.2772 11.3045
1 17.0371 4.60797 5.98662
1 13.7497 16.6475 13.7472
1 0.129753 11.6453 18.9506
1 20.2396 20.4241 11.3333
1 15.439 0.876038 1.17105
1 18.4718 14.9514 16.5567
1 5.32991 15.2297 4.5587
1 23.8246 21.2975 18.6081
1 9.13088 10.9502 13.9475
1 19.9672 4.17873 0.384116
1 2.74613 16.5949 19.2511
1 11.3281 2.5483 5.36067
1 9.80711 23.4013 1.58905
1 10.2765 6.63675 4.41449
1 2.45338 11.0875 17.3279
1 12.4844 10.192 0.210003
1 15.9663 9.25466 0.961515
1 6.44573 24.359 4.87876
1 3.2782 0.387232 13.3284
1 22.4712 15.5004 4.23813
1 14.6846 21.9844 21.412
1 22.3423 16.5192 7.10405
1 15.2374 16.3272 22.9239
1 12.4314 24.0204 22.9844
1 18.7303 13.2856 9.80118
1 22.828 2.60806 5.84251
1 2.7881 18.164 22.3865
1 0.585659 7.17863 7.55538
1 2.25461 15.7285 1.16796
1 9.8153 3.11755 21.0606
1 14.5074 16.4477 10.4137
1 0.509829 10.5407 21.939
1 14.2529 19.7052 11.9637
1 23.6764 24.7298 24.739
1 7.40842 21.1467 25.1347
1 1.79363 18.388 0.411489
1 6.00739 19.0632 12.6816
1 1.86566 13.0557 10.9972
1 23.1013 14.3229 19.1079
1 25.5759 10.0295 0.788637
1 15.4354 5.73968 15.7552
1 24.4815 13.5683 2.07384
1 14.3691 1.47282 24.0314
1 9.215 -0.315002 4.12995
1 21.9887 4.8452 16.662
1 24.9563 5.05731 23.244
1 7.72494 5.14936 6.73765
1 1.74823 21.9482 22.6809
1 10.7668 15.3438 16.8758
1 0.503783 25.1241 22.763
1 21.7197 3.53851 22.7256
1 24.3442 21.8225 25.2089
1 23.487 4.37857 20.2211
1 6.7693 4.53437 15.2525
1 0.413135 18.5104 18.8842
1 12.3175 8.81451 9.61461
1 8.0277 6.72522 2.29873
1 7.00555 24.8203 2.04418
1 22.13 11.5757 22.8366
1 23.7825 6.97558 15.1312
1 3.75438 1.74607 0.849384
1 2.91386 0.844091 20.6376
1 14.2784 17.353 2.10832
1 7.93928 11.9522 6.52871
1 22.8778 11.9439 4.98726
1 13.3444 14.6655 20.5571
1 19.4878 20.3087 1.73718
1 2.11009 5.37538 25.3173
1 6.14088 1.17865 7.66457
1 16.1228 4.33222 9.33842
1 13.2257 17.7249 24.7575
1 2.09121 10.4087 13.6372
1 24.9701 24.8287 16.8733
1 13.0149 7.51506 17.0131
1 6.13558 16.5259 6.93616
1 11.9412 4.523 2.95475
1 0.847706 14.7273 21.2707
1 5.26411 3.86004 8.93246
1 4.78211 23.4937 25.414
1 12.5383 9.83994 6.79551
1 11.9208 21.8049 11.6022
1 24.1512 3.6033 13.4526
1 19.7228 19.3625 21.0342
1 9.22526 5.67988 9.96533
1 8.03897 7.86755 12.9309
1 22.5007 18.0948 18.6577
1 7.28109 8.09648 16.4602
1 3.1236 10.919 5.30228
1 16.0035 10.8036 20.1878
1 6.28644 14.1918 9.55297
1 15.1285 4.62708 1.34847
1 4.43358 23.281 12.4733
1 7.54404 25.2828 13.1974
1 12.4889 10.0874 14.7849
1 25.1537 16.7417 3.05911
1 12.333 0.512544 17.3964
1 21.1089 22.87 23.0823
1 15.5084 16.5583 19.3998
1 11.9804 8.03704 23.2142
1 23.0671 12.2306 13.6595
1 15.816 10.8091 12.5763
1 11.7635 12.9638 18.4616
1 24.8124 12.8712 24.2653
1 25.1038 15.6481 24.244
1 24.2036 2.98037 17.9272
1 2.25678 14.3657 17.2902
1 14.4173 3.58494 12.9377
1 13.6782 1.25981 14.7855
1 10.9082 0.119296 20.6513
1 24.8247 2.46475 9.58996
1 16.2541 13.4647 6.78497
1 6.85337 18.4824 3.81149
1 2.66141 22.2825 9.1894
1 19.7462 9.8988 15.1616
1 12.3421 5.20839 10.9035
1 8.80064 2.65067 8.68512
1 13.4746 3.54502 8.29338
1 19.6523 12.4822 13.8548
1 15.6428 0.883935 11.6766
1 3.70723 25.1682 10.2302
1 12.3484 24.9843 0.408287
1 3.62087 7.5201 16.8362
1 6.09804 1.34606 19.988
1 23.3519 20.249 9.59368
1 22.7643 5.86256 11.8659
1 6.93324 16.3821 16.7082
1 3.89687 17.636 2.84693
1 20.1589 17.7089 0.257279
1 11.3663 21.7124 25.3776
1 3.056 16.1654 6.33193
1 24.2813 16.8427 21.395
1 0.644118 9.59066 10.2628
1 12.0199 20.7342 22.3533
1 2.11772 24.0255 15.3937
1 5.3813 24.062 15.4513
1 0.630107 20.1233 12.1588
1 20.1868 21.261 7.96317
1 8.63408 25.2366 18.935
1 17.5964 18.7719 4.96554
1 16.4706 7.28871 7.17771
1 18.8615 15.2184 0.871678
1 25.2068 2.12332 24.4736
1 21.7493 15.4868 22.2397
1 1.56432 3.93885 8.10637
1 12.395 2.50331 0.805702
1 3.36583 6.00157 11.2061
1 15.4964 12.76 23.5896
1 4.9756 3.43297 21.6275
1 5.74401 14.5313 18.454
1 5.95586 21.0522 5.52198
1 15.367 14.9527 0.0795643
1 11.1018 8.11776 12.3841
1 8.56183 11.1136 22.5145
1 19.8206 6.86293 14.3693
1 3.06067 17.5494 12.2707
1 17.2682 25.4066 20.4276
1 8.60205 23.9088 6.66679
1 20.1835 0.414702 24.0714
1 21.4944 12.1378 0.290006
1 6.28903 21.6444 2.1695
1 2.65015 12.49 0.563743
1 16.7124 21.1319 2.29476
1 21.0405 23.8152 19.8234
1 17.1694 3.32214 23.7822
1 18.7716 6.67132 17.1741
1 12.4585 23.1227 18.8566
1 13.3688 9.39962 3.38451
1 3.47805 20.2729 11.0448
1 8.13353 24.56 9.52978
1 24.0447 7.3991 20.0694
1 23.0632 20.1821 2.33055
1 10.9394 12.7549 5.60953
1 12.9732 2.64228 20.1343
1 2.61916 8.79974 24.9617
1 2.80398 13.7684 3.56416
1 5.18459 9.13219 6.72094
1 6.0645 1.15526 10.7958
512
 Atoms. Timestep: 20000
1 4.20168 20.1661 15.4729
1 21.2263 9.20348 4.89676
1 7.63578 7.67453 12.0122
1 11.2927 19.5149 4.3879
1 21.1803 4.26419 21.8982
1 10.2443 1.00782 23.3134
1 5.49013 17.1162 16.3572
1 12.7225 7.44319 16.6802
1 9.50185 7.41206 17.3451
1 8.31502 19.9348 3.01477
1 20.1085 0.483288 10.5048
1 19.4471 7.80101 7.57855
1 11.3009 20.3769 1.05661
1 17.2399 23.2416 16.6638
1 15.9067 3.16506 13.9968
1 18.1148 23.0424 24.4742
1 23.9726 4.0348 23.3709
1 18.1395 15.4193 13.1143
1 4.28173 18.0604 25.4295
1 10.8036 8.16064 10.7289
1 0.147104 21.5757 24.1192
1 0.5801 8.55764 15.4487
1 22.0372 9.29436 1.39146
1 9.77605 5.94994 13.3702
1 6.65526 2.39923 12.4736
1 3.73304 12.476 12.4539
1 4.64481 8.80383 22.8508
1 20.2773 0.84117 13.5687
1 21.8597 5.88034 25.3828
1 4.12685 2.02675 3.66505
1 16.6447 13.0061 6.09908
1 21.9657 5.0461 8.21512
1 19.257 4.29558 4.08168
1 14.0651 24.5457 9.63257
1 22.6201 24.2739 21.1248
1 11.6317 16.0278 9.91396
1 24.6042 5.20642 0.281056
1 17.2195 25.2929 10.6335
1 4.851 1.30065 22.9227
1 6.31493 11.2999 3.66968
1 7.55286 15.5956 14.4148
1 2.75935 20.5672 25.0012
1 23.3894 20.3638 16.1598
1 2.03958 9.41059 12.7284
1 22.6496 11.9137 6.03669
1 21.1607 2.93747 24.6317
1 10.4612 15.3464 22.931
1 9.88578 1.95646 3.38102
1 16.7577 15.5943 21.0335
1 22.4048 17.3747 17.0032
1 11.2627 25.4569 15.9526
1 21.5728 20.8543 19.6101
1 6.99497 6.62286 2.80395
1 3.49425 22.199 9.80252
1 13.8727 10.5505 16.8794
1 8.1083 23.5392 19.6943
1 23.4866 23.987 18.3288
1 5.20652 24.4489 7.71371
1 19.3929 16.1317 0.14003
1 15.5659 18.4916 17.5212
1 13.0927 12.4365 1.61651
1 3.57951 0.357408 13.28
1 23.4105 20.5356 22.1472
1 15.7118 10.7601 22.4952
1 13.031 14.079 7.80918
1 6.59683 2.31419 1.38124
1 20.0803 25.3538 23.5593
1 8.86826 4.40069 18.6525
1 1.74605 15.9901 0.956371
1 12.5626 14.9616 4.08281
1 1.40861 4.06036 22.8543
1 16.3706 22.0257 11.5145
1 0.0331769 14.7972 10.1478
1 5.24217 24.8424 15.366
1 2.56905 2.26879 25.5633
1 23.6409 21.2252 7.192
1 21.9152 5.72814 4.99833
1 20.7104 23.1015 15.0469
1 18.6731 5.98544 19.4029
1 8.58126 25.5045 13.6866
1 4.34865 9.47316 0.219783
1 17.0866 23.072 8.60041
1 10.8829 13.3331 25.218
1 6.39627 10.3745 21.0772
1 21.0948 18.2291 21.2737
1 16.1114 22.3901 4.67205
1 13.4229 1.71667 14.6038
1 24.4789 8.80138 17.9078
1 3.27807 24.9594 4.81101
1 22.7004 6.10194 19.7288
1 17.9326 5.08047 6.88191
1 17.0022 9.65464 5.74131
1 0.707561 1.40669 9.5021
1 2.40185 9.09929 9.2696
1 17.3008 5.58132 15.7249
1 13.6262 24.7975 21.1846
1 3.05497 0.696534 17.2287
1 25.2621 4.24138 8.06152
1 1.75434 18.6312 20.5958
1 23.2956 12.1427 14.802
1 7.84063 13.5721 1.28881
1 7.87827 11.7157 9.27884
1 14.0507 19.9477 2.99209
1 3.33658 5.19768 7.91972
1 24.0492 19.3097 19.1215
1 10.6302 23.0727 17.8733
1 19.5696 9.00449 19.4145
1 15.069 25.3887 6.36623
1 11.3868 14.7276 14.9717
1 12.2145 8.09219 5.97954
1 11.2463 20.9861 20.4917
1 8.00923 8.80384 23.9746
1 13.2161 17.3498 15.7219
1 10.9667 10.1445 16.8997
1 17.6402 14.5121 8.42947
1 1.87815 8.90904 2.81746
1 21.648 24.5068 6.02807
1 0.845238 4.99214 14.9127
1 6.92213 18.7108 12.7576
1 21.1835 3.6188 1.72743
1 12.1715 0.235456 18.5056
1 14.5159 24.3596 15.4124
1 24.2408 21.5847 10.4593
1 14.9025 23.2675 18.5776
1 20.866 19.2929 14.232
1 16.8154 15.1548 16.8527
1 23.0936 14.3422 22.5024
1 21.4761 9.88133 24.3685
1 12.0925 23.9808 23.8537
1 20.0764 14.5703 23.1582
1 21.2047 14.4847 13.9419
1 23.9637 11.7248 18.6148
1 5.53913 19.6347 22.2326