512
 Atoms. Timestep: 0
1 0.932693 22.0003 14.3578
1 8.57204 3.65279 8.58637
1 2.9041 4.79797 20.9452
1 11.3397 1.28087 19.2018
1 16.1343 9.73094 5.82747
1 3.86136 22.1395 16.0326
1 1.68058 20.3563 4.88948
1 25.3054 7.02066 3.96346
1 11.8809 23.2837 6.56403
1 16.5384 6.50951 4.96997
1 0.177995 22.9279 10.6432
1 11.6189 13.0888 14.5576
1 2.05416 6.55288 5.26781
1 0.6019 22.8999 17.3611
1 0.155945 5.82595 21.2472
1 17.5766 9.90428 12.6156
1 12.1145 22.4731 3.57776
1 7.30848 15.1752 24.4011
1 15.2429 6.29871 13.6672
1 16.9919 0.243315 2.54273
1 18.284 23.989 14.9692
1 0.942042 5.91626 0.748668
1 2.36493 13.2808 11.3548
1 4.91105 23.2382 21.0733
1 7.7039 6.51589 17.7537
1 5.36022 10.8607 16.8253
1 14.851 4.71187 10.7567
1 4.6297 18.3059 22.6874
1 21.9146 19.5874 12.4212
1 25.384 8.75352 20.9193
1 19.4116 13.8159 12.8829
1 16.0353 17.9614 25.5792
1 16.8282 0.0560409 24.3527
1 11.8495 16.3101 19.6294
1 15.8557 6.18045 1.45049
1 15.3465 2.96974 13.8754
1 6.34209 11.1838 13.4567
1 2.20863 3.22672 6.70704
1 23.2909 23.9385 24.1927
1 0.0472914 0.949253 2.97787
1 6.17658 23.4458 13.6019
1 20.6855 21.0391 25.1967
1 5.53247 19.3306 14.0809
1 13.7031 9.21109 23.2733
1 19.6651 17.7333 15.2434
1 15.6759 9.28065 15.2402
1 14.7524 23.3882 5.04545
1 7.61362 17.1688 21.6994
1 22.4619 15.803 1.09003
1 10.2884 17.7583 8.28986
1 11.8756 21.8129 12.2641
1 0.479342 21.8062 7.58724
1 16.0964 5.44465 16.6177
1 7.27423 17.442 16.4332
1 10.4974 7.05757 6.53736
1 23.4142 8.18992 18.2891
1 12.5187 18.9646 10.5713
1 4.77307 2.66592 10.3529
1 8.22401 6.92427 2.42803
1 17.1291 8.867 3.11844
1 16.4493 14.3012 8.05046
1 13.8686 16.4733 23.0367
1 10.744 5.49227 25.5961
1 21.5875 5.67965 20.7353
1 18.5341 7.97556 16.1127
1 9.4344 8.90127 25.2555
1 21.1051 20.9971 16.46
1 4.21354 20.7953 2.66246
1 22.109 9.52309 14.8923
1 1.97396 16.8078 5.79343
1 14.1195 6.81017 21.2003
1 13.6804 25.1546 13.5036
1 10.8773 8.01343 3.63614
1 24.3339 13.1735 25.5131
1 8.883 24.9214 12.0994
1 14.1595 12.2623 20.59
1 5.70118 20.7219 8.01567
1 12.125 21.8234 23.2008
1 21.262 12.8597 0.584567
1 10.0305 20.7731 21.1534
1 16.0444 17.1267 2.86123
1 22.8001 0.0128228 3.31986
1 16.7085 22.4814 20.3216
1 12.9466 14.5543 4.95432
1 0.420912 7.13823 18.4004
1 3.70372 8.64381 3.4442
1 20.6654 14.9566 3.09993
1 2.06082 19.2677 24.8337
1 1.95272 9.83503 17.945
1 25.1287 19.4034 12.188
1 16.8436 10.0304 8.95301
1 10.2677 4.64677 2.84702
1 8.76868 15.7174 1.25561
1 20.7258 3.07713 11.0123
1 10.023 1.00173 24.5899
1 18.8244 1.76144 17.2321
1 20.4859 13.8448 16.8822
1 11.914 6.1879 9.16713
1 25.3825 12.3178 14.9543
1 17.4375 20.5246 0.18123
1 15.2098 22.4842 25.0544
1 23.8284 8.65024 1.0499
1 14.2215 2.18976 7.411
1 4.37394 9.67603 6.60747
1 19.5812 4.30408 18.6004
1 9.06762 11.9733 0.446952
1 7.3469 16.7812 12.6355
1 5.87077 14.292 11.0007
1 3.09286 16.3238 24.6668
1 18.4612 18.8723 23.2839
1 14.0391 0.971149 2.20666
1 5.51023 3.67364 7.4756
1 5.23751 19.167 10.7207
1 6.2094 24.1669 3.44598
1 8.45606 15.8891 19.0046
1 24.7318 2.31466 14.1969
1 21.5734 4.5133 7.61365
1 17.3715 8.57612 25.3993
1 25.289 4.33563 24.2248
1 6.9248 20.0529 19.4284
1 19.5611 24.6929 2.90084
1 19.5118 8.6441 5.37692
1 20.8724 0.272498 6.23336
1 8.65018 23.4836 23.6006
1 3.47272 21.8404 0.0375736
1 5.54695 14.7375 18.2079
1 11.3265 17.1236 5.72603
1 23.4649 23.4176 16.3278
1 8.43207 14.172 12.9636
1 19.6812 10.0865 1.79475
1 19.6481 12.605 9.53515
1 12.5997 3.00211 25.6961
1 12.3361 4.8533 13.1671
1 6.26126 5.73605 14.1721
1 3.71807 6.28877 7.88465
1 4.83539 13.2587 24.0749
1 13.224 16.6611 0.360229
1 20.3944 7.95055 25.2356
1 7.74888 2.84747 3.48067
1 9.40482 5.36309 20.0942
1 12.94 0.0879752 23.7309
1 4.73113 0.83771 4.64517
1 19.7555 18.4522 18.1608
1 6.24858 7.00804 20.2383
1 22.4704 13.3437 10.3531
1 14.6638 24.259 21.6561
1 6.84169 9.5931 1.92728
1 16.9423 12.6405 22.0725
1 18.6595 13.466 1.09272
1 17.6221 6.00506 21.1535
1 15.8096 0.597796 16.0359
1 8.2342 12.6622 22.7377
1 13.0268 12.6259 2.03937
1 20.1058 6.36499 12.956
1 9.12541 5.71094 11.0003
1 13.8017 10.7974 13.6462
1 23.4475 2.16515 7.84287
1 17.5369 20.2333 6.78272
1 24.5014 17.2586 21.0834
1 18.7226 11.4804 6.95371
1 23.197 23.8265 13.2924
1 5.67642 14.3135 21.4221
1 4.51987 7.53172 17.6203
1 6.40563 23.9283 9.82816
1 21.9409 11.0796 8.35241
1 6.97879 21.3057 11.6479
1 4.47569 18.7087 18.455
1 18.6958 14.7679 19.5298
1 1.87987 8.11401 12.2964
1 20.1384 20.9269 9.59676
1 11.79 25.0414 16.7724
1 11.0492 24.0165 0.250169
1 0.426446 7.04401 9.76224
1 15.3833 13.824 13.8873
1 0.479605 17.0523 10.5639
1 22.8686 19.684 19.3951
1 9.96471 12.5234 10.5266
1 4.93293 3.46291 22.7854
1 8.24148 8.44467 11.8426
1 7.76419 8.36265 8.24541
1 24.317 19.5407 6.14455
1 8.67221 4.80704 5.70058
1 0.216336 18.9737 18.3255
1 0.0938635 10.3552 24.3896
1 15.534 5.91828 7.65078
1 8.35285 3.93747 23.0769
1 13.5417 8.37172 18.4079
1 24.4014 1.91983 10.9986
1 12.9946 15.8263 8.63442
1 25.639 25.5948 8.87228
1 8.72114 9.44981 18.8203
1 3.05954 23.1051 8.10282
1 11.9756 3.40925 22.8955
1 16.1134 18.286 20.2848
1 9.92001 15.56 15.8941
1 13.0814 19.1809 20.6626
1 25.6563 11.0184 12.1528
1 25.2899 14.1893 11.7432
1 9.3566 5.88552 14.4953
1 21.6377 6.34273 1.42645
1 24.08 5.64886 15.7811
1 11.2117 1.64512 13.8938
1 21.9034 16.4816 12.1478
1 3.67597 9.09314 20.6847
1 11.0632 14.1885 25.4029
1 12.8951 18.3324 3.56661
1 12.36 3.5594 5.68854
1 19.0706 14.4586 5.84532
1 3.63687 4.61351 25.1234
1 19.0695 11.5909 24.5361
1 12.9373 8.1073 14.953
1 11.4479 10.0803 7.17046
1 11.1324 14.9545 22.3728
1 7.52964 25.3244 0.96424
1 3.89495 22.304 5.0704
1 20.3326 21.597 13.7344
1 3.86822 22.1106 11.8512
1 0.297007 15.0027 2.27396
1 5.78051 5.49915 9.98131
1 13.6867 4.26787 2.43593
1 0.181232 5.14685 13.1936
1 6.57412 2.46175 15.8233
1 20.0719 13.6847 22.6505
1 1.89784 7.70722 15.7289
1 16.3621 7.91727 18.6246
1 21.896 7.84381 7.51677
1 4.84177 8.23625 25.4002
1 22.7215 19.5511 1.45734
1 13.4959 12.7106 23.4677
1 8.13346 0.70087 9.43374
1 20.3937 2.43823 3.18769
1 23.6962 14.2442 4.47806
1 8.38961 11.7069 7.33055
1 1.83036 13.113 25.4396
1 11.573 24.4363 10.7234
1 13.3096 20.2978 6.4933
1 23.4475 15.6388 15.0595
1 14.7798 20.6178 2.99873
1 25.5103 15.413 7.9998
1 12.3974 20.6452 0.449705
1 15.7014 11.6284 1.56006
1 18.1646 2.29158 6.76482
1 9.05548 21.7428 1.76623
1 16.0124 18.282 9.5985
1 21.7579 22.8922 1.32077
1 23.9229 4.43135 10.3693
1 24.7048 18.047 3.42583
1 22.1246 10.5723 24.4558
1 20.9884 16.3537 21.4516
1 13.6041 6.756 4.9088
1 15.9206 13.5381 25.0441
1 10.6048 10.3869 13.1703
1 17.6188 21.9423 23.0301
1 21.1094 6.13224 9.90629
1 14.8772 20.0848 13.0327
1 21.8682 17.7937 4.54933
1 9.99119 18.971 18.6616
1 3.02063 24.7301 14.2387
1 4.66344 17.623 4.23461
1 4.78899 0.0688382 7.98411
1 9.56371 15.0308 6.05107
1 15.7592 14.9036 19.5874
1 2.31434 24.9651 5.60238
1 2.69451 18.2884 12.8216
1 22.5248 2.88249 16.3056
1 10.7689 11.8125 21.1723
1 16.4528 3.22256 19.3769
1 22.6472 25.2899 10.1912
1 3.34393 0.507406 21.3872
1 5.21649 6.03797 2.3102
1 24.7306 25.478 5.69606
1 9.45851 24.3942 4.39327
1 21.5022 1.16633 19.8775
1 1.62084 10.0044 8.14681
1 1.06617 13.0146 6.44795
1 21.7314 15.2755 7.04771
1 8.68367 11.7806 3.7781
1 25.1228 0.711811 21.7541
1 17.3826 22.0571 11.8303
1 0.813224 23.7287 22.6193
1 7.24871 18.2634 24.479
1 0.598244 25.5237 15.7013
1 17.3454 0.259388 20.5926
1 15.6465 15.488 11.0826
1 16.8022 2.49251 9.6085
1 6.97734 20.8948 4.41643
1 22.8956 3.61604 22.4487
1 20.451 15.9362 24.5002
1 15.4293 22.9137 15.1273
1 1.3464 9.23423 1.6422
1 21.4111 22.0261 21.4379
1 16.3156 22.7199 7.88873
1 23.6953 12.7922 18.0049
1 2.10152 2.43292 13.32
1 14.5826 17.8149 5.74192
1 17.3164 16.0864 23.3223
1 7.84865 1.43654 6.13488
1 20.7004 25.5431 15.9555
1 22.5313 4.44829 13.1766
1 21.4776 19.1747 7.34416
1 14.2479 8.71629 8.11486
1 18.2339 18.4458 11.85
1 25.5973 15.2549 18.6466
1 5.19173 1.99638 1.10236
1 13.8351 1.83 11.3833
1 3.14372 10.4551 23.5533
1 22.7719 8.97128 4.04755
1 4.23072 16.9816 15.8559
1 14.7099 23.7846 1.94554
1 19.7245 18.3922 0.844723
1 13.6118 8.16836 11.5809
1 18.7581 1.31099 13.8664
1 1.58506 18.0536 2.30225
1 24.1927 20.7891 15.5149
1 13.7887 24.7737 8.41317
1 21.7132 4.09941 24.9459
1 21.4519 0.130769 0.593334
1 5.58656 6.26343 5.68601
1 5.49758 0.874962 13.3054
1 2.82967 21.4761 22.8618
1 10.6402 1.61972 10.4807
1 6.5589 14.8998 4.69565
1 19.8212 24.3418 11.6444
1 22.9423 18.4605 16.6629
1 20.0043 10.8457 20.6575
1 18.6268 15.8038 10.3071
1 16.7784 12.8103 10.6145
1 6.41605 21.3977 25.1433
1 6.22323 11.8033 19.5725
1 5.84967 25.2271 16.5778
1 6.93032 17.4912 7.40966
1 16.6411 0.0133975 11.5199
1 24.7764 20.6886 24.4514
1 9.18149 2.81963 17.7548
1 1.76954 20.303 10.415
1 5.46366 7.61529 12.0994
1 24.4208 0.288131 18.603
1 8.48136 17.9111 4.22454
1 19.2705 5.53135 5.94261
1 23.4649 22.8833 19.4618
1 24.5929 22.3041 3.60895
1 18.9774 5.52393 3.04443
1 3.59852 18.9494 7.69103
1 4.57621 11.3283 0.628635
1 6.56466 22.1845 16.9701
1 13.2946 23.511 19.085
1 2.64818 24.504 2.36062
1 11.9405 10.9263 25.3057
1 2.65807 10.751 13.802
1 24.7884 7.64891 6.86388
1 17.2605 14.3073 16.779
1 1.78219 15.3271 13.9825
1 7.03372 8.58369 15.3893
1 11.2569 9.02611 10.1653
1 17.7997 21.6986 17.2018
1 4.05883 4.18567 16.1501
1 20.3065 21.0262 3.67386
1 10.2561 23.4193 14.7614
1 8.7224 0.466169 16.1259
1 22.0505 8.65001 22.036
1 1.90803 2.57053 23.3026
1 19.7185 22.9676 7.21984
1 16.3635 9.44607 21.6614
1 25.0073 20.4203 21.1935
1 14.0614 1.69837 21.7238
1 7.46107 24.2211 6.75998
1 16.4818 3.95038 4.27645
1 23.8743 8.97044 9.77791
1 23.2504 21.4221 10.3321
1 6.80396 14.5 8.08642
1 18.2934 5.71668 25.1879
1 2.69248 7.10326 23.7203
1 0.913708 21.3276 1.3675
1 24.4746 11.502 2.81829
1 21.1864 6.31713 16.5719
1 9.26591 15.909 10.5225
1 10.8858 24.5151 21.3783
1 18.9216 4.21275 15.4479
1 7.19984 11.1083 10.3379
1 10.0985 20.779 5.23429
1 1.78068 17.8589 21.4996
1 11.1934 12.9167 7.66925
1 23.0112 7.28774 12.3658
1 19.8226 0.124433 22.7591
1 18.415 7.40365 8.07611
1 12.4703 20.8623 15.5438
1 19.3834 8.95126 10.5652
1 19.678 7.72387 19.1721
1 3.64591 14.6159 6.76233
1 19.5276 23.9172 18.6522
1 3.4214 15.5668 2.10676
1 1.23195 3.74783 3.70488
1 0.280366 15.5711 24.8718
1 2.63947 0.788061 17.4197
1 2.39657 19.6861 15.6556
1 2.54949 16.4651 18.9605
1 2.47377 12.9317 3.28715
1 6.32412 25.577 23.5498
1 14.3671 0.634521 19.1089
1 1.0802 9.83111 4.84803
1 23.1507 17.1652 9.08612
1 2.92077 25.403 11.1955
1 2.07327 1.67551 0.690816
1 0.0124611 12.3928 9.14963
1 6.18741 0.862175 19.643
1 10.0401 18.667 1.29579
1 10.8508 5.80998 16.9024
1 6.30153 17.8152 1.79878
1 8.55221 9.09522 21.6985
1 13.3266 4.30362 20.1709
1 13.1818 12.8738 10.4733
1 6.48506 9.85156 23.8426
1 3.2164 12.1482 19.2413
1 22.1015 15.9232 18.7421
1 22.7364 18.4189 23.773
1 9.41016 20.5273 14.6417
1 14.6755 22.9316 11.2613
1 8.59015 20.1055 7.79701
1 19.7284 3.31048 21.674
1 23.9641 6.64417 23.7172
1 7.26614 6.40396 24.8522
1 18.8466 18.3316 4.4357
1 12.9837 3.37936 17.1126
1 21.8351 1.04692 13.2692
1 8.86458 0.958829 20.5614
1 23.4651 11.7595 21.7999
1 23.2884 14.474 22.7243
1 4.75755 12.3492 9.01872
1 6.08438 14.136 1.69749
1 17.2231 16.4767 14.096
1 17.7562 22.3024 4.47165
1 17.3113 19.7753 14.5357
1 3.47122 24.853 24.6138
1 3.20829 15.9227 9.46318
1 3.14431 5.5417 12.1697
1 1.17536 4.3813 10.5658
1 21.6418 23.3955 5.18277
1 10.5003 17.6277 23.5836
1 22.6049 5.67787 4.10149
1 16.4041 14.584 4.70129
1 14.2636 12.2358 6.98233
1 20.9722 10.7222 17.4871
1 5.29259 3.59346 19.3407
1 24.9639 4.68177 6.43482
1 3.77033 9.78187 10.3242
1 17.7514 3.90877 12.2196
1 18.2838 25.6483 8.82505
1 8.23599 2.85434 12.5607
1 18.7455 23.9602 25.5349
1 19.272 2.26861 0.219403
1 10.6023 1.70025 7.48708
1 18.0282 12.0661 4.01911
1 11.6485 17.7285 16.5549
1 12.8885 0.222407 5.05236
1 13.0956 8.28595 1.04223
1 16.1984 0.0837266 5.82781
1 2.72482 13.4983 16.6028
1 24.0265 1.64318 25.4866
1 20.8831 12.0562 4.42892
1 12.6104 14.5918 17.0928
1 8.50115 3.38432 0.471004
1 14.4759 20.5557 17.8553
1 0.595579 18.4261 8.18792
1 2.1915 23.8231 19.7191
1 19.1339 20.7021 20.3393
1 18.6911 4.4144 8.84343
1 18.6988 11.4845 14.8947
1 19.0201 9.16635 22.8526
1 11.4179 11.0343 17.8995
1 11.2473 7.55705 19.8311
1 9.11843 23.2552 8.8847
1 2.61899 21.0194 18.8462
1 13.7807 5.52164 24.5718
1 24.3538 3.92461 1.66929
1 0.0978011 17.3876 15.6412
1 21.2053 10.6947 12.3973
1 10.6695 7.41027 22.7856
1 22.1974 12.9703 13.919
1 7.23921 20.7276 22.226
1 9.87482 22.216 18.2556
1 7.34088 9.01964 5.06548
1 16.5127 7.46131 10.425
1 14.763 19.9337 23.281
1 12.9213 11.1223 4.47853
1 14.6831 12.252 17.3293
1 14.9726 17.7782 16.7118
1 5.13377 12.0339 4.49466
1 23.941 3.95315 19.4151
1 8.8521 13.0787 18.8229
1 18.0046 16.9822 7.30282
1 10.8304 14.9149 3.03943
1 8.96872 11.5459 15.7794
1 13.4578 16.2459 14.2662
1 10.2095 8.94674 15.9432
1 16.155 3.71204 22.8041
1 0.100676 25.0754 12.7167
1 23.2353 22.9072 7.77121
1 10.3551 1.32341 2.82682
1 25.639 24.4251 0.0247795
1 24.142 2.61571 4.62078
1 1.27701 2.14512 19.5844
1 8.81528 18.8154 10.8544
1 1.70411 14.4979 21.1242
1 17.2859 11.5891 19.2496
1 0.385062 3.77077 17.1586
1 5.75136 14.5373 14.3248
1 12.0343 15.4247 11.6728
1 25.0088 8.63339 14.754
1 4.45917 3.59185 4.18942
1 15.5284 2.2653 0.202946
1 9.43735 20.3977 24.5276
1 11.416 18.2685 13.1347
512
 Atoms. Timestep: 10000
1 13.1963 24.8156 11.8442
1 6.68869 9.95716 15.0758
1 3.25519 2.90018 15.3499
1 13.3889 0.415664 21.182
1 12.2845 12.9905 10.4545
1 1.50565 19.8861 0.490233
1 0.448118 9.24576 1.01606
1 1.4413 8.30625 13.5589
1 1.70554 22.7467 9.24548
1 21.2718 7.9905 20.6921
1 4.28963 0.213747 12.6919
1 3.40771 21.2751 14.9443
1 2.46687 5.53501 12.2967
1 0.622011 24.1607 21.3444
1 1.8177 11.727 16.983
1 17.1721 11.3179 16.7383
1 5.51211 18.8088 0.146607
1 13.5392 6.53759 1.9518
1 4.17253 15.3711 14.022
1 16.7785 1.66515 1.51953
1 22.1904 24.441 20.2624
1 4.32183 4.50749 2.4616
1 3.11555 19.6795 10.5643
1 0.282063 19.4966 16.4114
1 6.97031 4.56541 19.9883
1 11.4995 11.119 19.0788
1 15.7985 7.49601 14.8145
1 11.8828 12.3122 7.37364
1 23.4634 1.25386 9.12574
1 19.5511 9.44179 23.3846
1 18.0303 13.0483 18.9141
1 22.1652 0.784594 25.7115
1 23.7712 23.8658 23.5097
1 9.73597 13.3773 20.6354
1 11.9262 23.3023 0.549036
1 5.63625 9.30492 21.3333
1 22.2271 12.2738 19.3715
1 3.80037 25.0521 7.71753
1 17.8835 22.3444 1.70343
1 8.86222 25.4003 1.43396
1 11.8029 19.5813 19.5157
1 16.982 14.8146 2.43532
1 8.14214 15.8531 21.7405
1 10.9564 2.0264 -0.0617943
1 1.04871 13.9856 23.6208
1 20.7319 13.2269 16.7523
1 12.626 21.1872 11.8257
1 3.73856 11.6619 2.99954
1 25.1296 15.1597 0.286362
1 14.98 20.0902 7.6442
1 6.04404 23.2458 13.2956
1 18.6199 21.9811 6.1358
1 15.3329 1.12293 16.4102
1 10.024 22.2289 21.3991
1 11.6162 6.88545 8.40782
1 19.5433 15.1962 20.9299
1 12.495 0.765502 8.56416
1 15.1997 2.64749 8.12367
1 11.8819 2.69076 22.6723
1 19.0613 4.77791 15.4795
1 16.3443 14.8535 20.583
1 19.327 13.4932 0.886292
1 10.8081 5.05222 25.0638
1 18.967 4.92634 3.66834
1 20.5097 5.2165 21.4456
1 4.35649 6.80268 21.1493
1 19.6769 17.8859 18.8494
1 0.492194 22.4447 6.27724
1 20.9449 7.03403 17.9958
1 6.01819 14.018 4.02472
1 17.0963 8.46448 25.1251
1 11.2293 1.61222 11.6007
1 9.37594 23.3274 24.0186
1 1.97219 7.00729 3.80937
1 13.7674 4.94056 13.4686
1 15.8163 16.3871 16.6461
1 6.09319 24.0707 5.69507
1 16.8615 19.9197 3.91024
1 3.29611 10.2396 25.733
1 3.94805 14.9959 17.7203
1 0.649926 18.098 2.66681
1 3.77312 22.3642 6.13575
1 18.4687 1.88346 16.4984
1 10.2663 13.8746 5.30447
1 2.42216 9.38351 20.4888
1 5.88678 7.19372 12.6098
1 23.6511 11.2419 7.2258
1 8.29048 0.254915 13.4047
1 8.84759 7.30317 19.0526
1 22.1526 18.7293 13.5917
1 20.0223 11.4619 12.1327
1 2.92641 25.7102 25.0831
1 6.45863 18.4083 3.31827
1 1.48053 2.45645 12.1837
1 15.8561 20.025 23.7195
1 24.3335 9.09284 14.9333
1 13.5064 14.1613 22.2446
1 9.64759 9.24811 16.0834
1 23.1514 15.0702 11.2536
1 13.7281 22.9711 9.62428
1 14.2069 19.232 17.3954
1 16.2894 12.4353 0.704906
1 7.72262 2.8298 4.29538
1 4.42314 17.5929 11.9693
1 2.9926 11.1608 14.3232
1 11.1767 9.75525 9.3086
1 6.99937 0.57726 8.15127
1 25.1596 16.5654 13.0758
1 11.1741 16.5371 20.3534
1 21.1019 20.6373 2.22713
1 10.2945 25.5666 20.9996
1 3.69676 7.8518 6.0381
1 7.04062 2.32905 10.5251
1 9.60908 19.1127 4.18638
1 6.80466 14.9615 18.4484
1 0.59146 0.0492696 6.44715
1 2.19312 14.3213 11.8721
1 21.1303 7.17712 14.7799
1 2.78049 1.79832 2.03585
1 25.2011 20.6542 22.5026
1 22.2115 4.7651 3.14289
1 23.7047 12.1962 4.1232
1 15.0122 4.22871 4.8276
1 14.1495 16.5565 19.2493
1 22.4458 17.7903 2.02666
1 10.1939 6.51722 21.6608
1 13.6181 19.2489 4.71672
1 3.31713 18.5505 23.0713
1 0.923313 17.2461 10.2425
1 13.788 13.9393 2.56158
1 17.6814 8.89841 10.9777
1 12.5175 21.2766 23.8489
1 4.11632 6.20362 15.1519
1 1.19852 2.14211 4.55935
1 14.074 25.4972 1.69506
1 8.58144 13.3252 23.7419
1 21.5153 11.5762 2.0969
1 16.0158 3.74033 21.3926
1 3.58469 1.56604 21.7603
1 3.40712 13.0236 19.9752
1 15.5413 20.6734 20.9055
1 3.44208 19.6436 3.92599
1 19.0848 20.4603 24.7419
1 5.06898 17.5593 19.6582
1 15.2201 10.4215 13.4993
1 13.3322 22.9341 19.7934
1 5.23254 7.79805 17.5962
1 21.4778 12.1809 24.7845
1 14.1991 16.1868 8.8705
1 22.6534 16.0065 24.2936
1 14.0897 7.9048 11.1937
1 12.2684 8.70905 21.8417
1 15.6431 12.1288 3.92752
1 18.4376 12.0067 9.69708
1 8.16791 9.07406 11.62
1 7.36294 13.2961 15.7869
1 22.6624 25.5974 6.41344
1 13.8683 0.999526 5.27086
1 24.9089 18.0499 24.8844
1 17.4818 6.91521 7.4156
1 21.4445 8.76594 11.8934
1 5.45839 19.9354 13.4169
1 0.285862 11.8567 21.209
1 21.5554 22.1603 8.81848
1 23.8965 5.22811 6.89314
1 18.1935 2.41005 9.34519
1 22.4056 21.4006 11.7606
1 23.1528 16.1148 4.93025
1 22.1332 18.8331 7.51609
1 0.197435 14.6408 3.3201
1 20.9665 22.7311 14.5353
1 11.7887 20.45 1.68167
1 21.8873 9.43147 5.14675
1 17.1269 14.7005 9.29662
1 21.1798 20.2698 5.19249
1 21.8422 20.4287 22.3463
1 11.4623 8.95563 6.15615
1 24.0279 12.8623 16.6046
1 25.2071 13.5962 13.6723
1 8.13831 18.2696 11.6782
1 20.1349 0.185197 14.7395
1 6.38809 23.7581 25.4297
1 0.764987 22.8476 25.2654
1 18.1305 5.10202 19.4519
1 11.2 6.84219 12.5106
1 16.1028 24.4819 18.6725
1 12.9279 10.6215 16.539
1 1.96565 0.519328 9.80831
1 7.68044 16.1446 9.40536
1 16.4232 24.9338 7.11628
1 7.09116 20.969 16.0885
1 19.465 16.9073 0.963953
1 10.3577 5.40184 16.8146
1 15.1354 6.84111 19.9935
1 2.95152 19.6625 7.49916
1 17.9855 22.968 14.8782
1 20.0206 10.1535 18.1142
1 3.28352 3.4342 9.64421
1 8.56839 21.4059 18.8256
1 20.5221 10.9218 7.37589
1 24.4454 5.24495 15.0227
1 5.19188 10.9489 17.4471
1 24.1561 18.0319 19.2623
1 9.2808 9.87873 21.6354
1 14.3085 10.2991 20.2569
1 16.8716 24.2693 4.04878
1 6.11311 11.1369 5.32617
1 22.084 15.7994 18.5273
1 3.88341 24.6219 3.11476
1 13.9845 1.85575 13.696
1 18.0728 7.56428 16.9715
1 6.89863 24.871 20.1247
1 11.9277 11.716 21.9181
1 6.34407 21.0377 10.1843
1 8.00439 20.7142 24.73
1 15.8758 20.4203 11.0032
1 14.2721 21.0138 14.6748
1 24.5347 8.03221 11.8957
1 2.04029 11.3311 11.1705
1 13.9994 3.1006 1.95306
1 18.2142 4.15521 25.6501
1 3.15997 25.6428 16.1045
1 22.9078 8.02514 2.64103
1 25.6106 13.6746 9.67184
1 14.9277 8.5347 22.8555
1 20.3946 3.09705 23.978
1 10.2161 7.36167 1.68841
1 17.4614 1.54706 4.52743
1 13.0585 3.89446 20.2725
1 9.69399 3.80332 13.8295
1 24.6017 1.45054 20.5481
1 25.0429 6.4818 21.6092
1 8.98205 14.0313 1.08712
1 23.0087 8.77426 24.7456
1 22.0918 2.74175 14.6827
1 14.6302 21.6554 2.02205
1 24.3907 11.4838 0.766858
1 20.067 16.515 8.08305
1 2.4919 13.0019 8.02875
1 20.5802 24.1371 4.3542
1 11.3898 1.68865 3.19867
1 14.6913 15.3487 25.6216
1 11.7645 21.1146 7.43551
1 15.1968 12.9386 11.9857
1 16.9104 20.8199 18.2168
1 25.7869 6.48207 9.71225
1 0.400634 9.91521 8.68296
1 3.3509 13.2967 0.654608
1 10.5256 8.88587 24.1779
1 12.6957 6.45585 5.00675
1 16.328 9.20609 2.21667
1 10.5314 20.5503 13.7386
1 17.0035 16.1878 24.1416
1 23.8355 2.75639 5.55057
1 17.1115 22.355 9.07842
1 19.8378 17.309 5.13232
1 19.1346 19.6859 14.9738
1 2.47334 22.1879 17.7334
1 25.099 20.095 8.30826
1 4.21788 2.4089 5.05875
1 12.4902 12.532 14.0492
1 17.7755 15.7193 13.2331
1 24.0811 23.4373 8.28504
1 5.45503 23.2537 17.1903
1 24.7539 9.23876 20.6942
1 11.89 12.6857 24.887
1 22.8719 5.23622 12.4972
1 18.8383 20.9281 12.3312
1 3.3683 11.2373 22.8284
1 20.5925 6.12565 0.356975
1 5.45852 0.734792 1.12283
1 4.0934 23.6492 22.6968
1 20.6217 2.32161 19.5426
1 23.544 18.7239 10.7282
1 0.00579416 20.7531 11.6965
1 24.1222 16.6732 8.88256
1 6.18943 15.7839 1.54685
1 19.3712 25.6103 23.8114
1 19.9339 25.2479 8.1079
1 0.0352528 20.9799 3.61161
1 6.3526 11.0799 24.482
1 0.605403 1.27056 15.5786
1 22.8838 14.5691 21.3112
1 21.9671 19.4849 16.7226
1 22.8518 11.7863 10.7609
1 6.98894 22.2171 22.1062
1 24.8534 6.85528 18.2872
1 12.8874 10.7169 3.77227
1 18.973 15.711 17.0645
1 5.73547 6.68586 25.1263
1 3.85169 15.2531 21.9163
1 14.7687 22.2815 5.59005
1 2.19366 7.57282 23.7023
1 23.9049 2.25093 12.2252
1 18.7155 19.676 8.91253
1 16.2761 4.88757 16.6102
1 8.34335 7.51443 8.70342
1 23.1548 4.26585 20.0265
1 19.9052 12.0536 21.4973
1 22.1837 14.7191 1.53718
1 5.23547 9.36492 10.169
1 21.2009 15.6662 13.8454
1 23.3886 16.3247 15.7334
1 8.93755 25.1949 4.70049
1 13.3521 9.87608 25.714
1 7.10744 8.83783 0.582687
1 4.53642 8.52845 3.49951
1 8.18012 4.3334 7.94882
1 21.4738 18.8756 24.9041
1 2.77786 17.0994 0.13734
1 7.49769 15.8948 14.493
1 24.4432 2.76866 1.58028
1 6.47933 11.8105 1.89872
1 22.8167 0.800881 17.5233
1 11.7348 3.60857 8.02423
1 19.3001 25.4561 1.36011
1 0.352686 3.76437 24.8755
1 2.33366 4.65397 5.54144
1 12.3036 18.5175 13.3732
1 8.77137 18.9133 1.1295
1 6.26733 0.351212 15.5753
1 8.85083 22.1705 1.60348
1 18.0148 25.2409 10.8253
1 3.22099 19.2456 17.664
1 19.7509 9.21644 2.04733
1 18.0405 8.19458 20.9459
1 19.0377 13.0072 14.2832
1 8.05039 16.8265 24.7832
1 3.74871 4.24878 18.9065
1 23.2323 22.6578 5.5296
1 3.94662 22.2313 0.744006
1 11.3179 0.00339523 14.8367
1 21.4313 17.3631 21.621
1 18.3839 6.81174 13.0566
1 1.1401 19.6657 19.7373
1 1.40102 5.40393 16.7845
1 22.1538 1.12116 22.6828
1 9.8886 19.1401 21.873
1 17.1548 1.95262 19.067
1 21.4148 4.01863 17.1999
1 25.6235 17.8989 5.79691
1 18.4502 6.06357 23.2545
1 5.82647 5.82347 6.14716
1 8.04705 8.46901 4.74847
1 15.4298 1.39257 11.2169
1 8.29929 18.7131 14.7238
1 6.05645 21.7117 3.13938
1 12.9376 3.53439 16.3914
1 1.28352 15.6556 15.6546
1 18.1404 3.81762 6.56729
1 18.4039 13.4779 23.7564
1 25.1309 14.2644 19.1976
1 3.31667 22.6218 12.2997
1 5.13618 11.9096 7.93153
1 23.7638 21.0923 19.8717
1 5.56004 4.10585 13.2612
1 16.5086 16.8846 6.97407
1 13.447 15.5946 5.78187
1 16.4014 23.027 12.3054
1 3.17837 7.29708 1.066
1 7.8572 3.56265 0.653177
1 5.84996 19.8008 5.90191
1 14.2645 24.1797 14.7737
1 23.4944 25.2543 14.4546
1 17.3406 0.513642 13.5949
1 8.84191 19.0894 7.87387
1 14.9874 23.1921 22.5091
1 22.0292 13.5284 8.15584
1 20.3578 17.7855 10.9932
1 5.42105 17.992 8.69018
1 18.9487 25.4089 21.0607
1 3.31856 3.65985 24.7102
1 22.3328 8.38348 9.13666
1 4.7463 16.0766 6.31466
1 20.8184 6.06312 6.13914
1 2.64306 14.4091 4.93988
1 13.7342 17.7732 22.1969
1 16.6344 3.5704 13.4904
1 10.5212 15.5492 7.98374
1 3.61854 16.7712 3.23545
1 18.3847 18.5345 21.9942
1 8.53898 4.09276 23.0836
1 25.4106 24.804 18.5377
1 18.6595 22.4231 21.4964
1 8.39449 11.0163 18.3617
1 9.96102 15.2041 17.7212
1 14.6169 5.83802 7.71814
1 14.3696 17.4117 2.4484
1 6.57653 6.47987 2.5552
1 22.2391 22.6799 17.4556
1 7.53416 13.6331 7.35574
1 0.947154 24.2757 3.78616
1 20.9997 23.2052 24.8791
1 6.2353 3.74043 16.8278
1 4.69626 21.6444 19.8882
1 6.68075 18.3689 22.3309
1 5.75071 12.4734 12.6926
1 11.6232 18.2142 16.8682
1 18.8316 9.46628 14.1016
1 8.6469 0.630614 23.5212
1 22.7267 11.2057 22.2967
1 11.5123 24.4308 6.47794
1 15.6872 23.8762 25.3409
1 0.788122 22.9723 15.3376
1 2.03352 18.3391 13.5009
1 11.4736 18.4186 24.6188
1 20.8031 1.04401 11.155
1 12.1916 17.9782 7.12742
1 7.6112 6.31159 15.3412
1 12.5134 7.78295 14.8681
1 15.2065 13.4681 17.9004
1 9.92985 4.45706 2.60944
1 8.0333 7.68704 23.2875
1 1.72467 16.3838 19.0523
1 23.767 20.8466 0.522473
1 8.92199 22.5962 11.9742
1 19.5602 23.9416 17.5505
1 14.0386 15.8673 12.9873
1 20.5935 20.8634 19.5621
1 2.82668 10.8905 5.99039
1 2.36663 4.49154 21.6823
1 20.4865 13.7982 4.10798
1 9.83804 3.09969 19.862
1 25.6951 3.43634 9.22047
1 13.9073 18.0883 10.952
1 24.4232 6.37623 0.370692
1 0.638066 11.54 3.24634
1 6.4075 5.07234 10.4707
1 9.68771 5.38194 5.63693
1 10.7852 15.5583 24.0151
1 16.1273 0.644618 23.2952
1 24.1538 21.5236 14.3064
1 2.20238 1.31249 19.0835
1 5.97139 24.2448 10.622
1 21.5545 4.1577 8.5779
1 3.16215 7.68182 9.1884
1 15.9597 7.4356 4.86931
1 16.6112 18.6835 0.806174
1 18.404 11.5597 4.22575
1 20.0394 14.3685 11.2969
1 8.48348 11.5053 9.83003
1 16.2711 13.7067 14.8805
1 12.6311 25.5331 18.0961
1 8.68853 10.5036 7.20115
1 4.78526 14.543 10.462
1 20.5819 2.08309 4.91293
1 14.836 13.4803 7.29666
1 8.98054 2.29133 16.9156
1 13.9158 2.35009 24.8132
1 25.4865 0.500855 23.8892
1 16.3164 5.39531 10.7257
1 14.7755 11.8268 23.572
1 10.556 15.7496 14.5147
1 19.2178 8.04299 4.68604
1 9.36094 25.3782 10.1543
1 12.7246 4.49787 10.5573
1 8.97132 23.2546 15.4309
1 2.27816 21.3285 22.1739
1 17.2403 11.4244 7.19216
1 13.1369 15.0808 16.7453
1 5.97249 2.20439 23.4324
1 9.94674 15.761 11.2278
1 1.93678 15.9598 7.89677
1 8.849 25.2633 18.1715
1 12.4882 24.9974 23.8122
1 14.5521 9.38537 6.56224
1 19.7543 6.81845 9.65582
1 13.1321 5.94843 22.6765
1 3.46963 24.4369 19.576
1 12.3108 7.21781 18.8846
1 10.9627 22.6309 3.78598
1 6.25562 12.4271 21.3449
1 0.0141725 10.2712 23.9404
1 20.3938 2.79103 1.09158
1 24.5308 24.3444 11.4395
1 14.9918 10.7947 9.42819
1 11.8453 21.7834 16.6853
1 21.6113 10.8721 14.7098
1 8.02919 18.3027 19.1922
1 16.3192 18.0874 19.7601
1 9.40241 5.26042 10.716
1 15.4905 5.3889 24.8807
1 9.81092 10.8076 0.904395
1 9.29906 11.2632 3.62463
1 9.00229 13.2781 12.8203
1 16.2063 18.4109 13.805
1 5.43618 14.1198 24.385
1 23.0581 9.76228 17.4712
1 15.1421 8.89652 17.4581
1 21.4444 24.2343 11.9678
1 7.7142 16.2062 5.45043
1 10.9276 10.4596 12.6827
1 17.0225 17.7402 11.0016
1 1.73711 8.22561 17.2808
1 19.4878 3.40425 12.4616
1 23.1198 0.498952 3.27364
1 0.191119 0.120192 1.2701
1 8.16032 22.4057 7.05242
1 23.2198 23.5017 2.26845
1 23.4894 4.22525 23.7839
1 5.52866 1.66712 18.9286
1 9.33693 1.69917 6.69982
1 25.4544 8.36785 5.19484
1 10.574 12.5883 16.5667
1 25.649 2.86004 17.9049
1 5.1959 17.6801 15.9202
1 18.3658 14.1917 6.49607
1 0.345825 17.5842 22.1945
1 25.2996 5.11852 3.37675
1 17.2385 6.27206 1.82296
1 11.1456 15.6836 2.6631
1 11.5948 19.4575 9.80249
512
 Atoms. Timestep: 20000
1 9.36885 22.4171 11.2565
1 1.9012 15.3608 19.0807
1 7.43658 2.09483 15.6537
1 13.7741 22.8616 18.9093
1 12.2255 10.4627 3.79874
1 4.24459 15.749 3.60076
1 -0.0121718 0.323189 2.19268
1 4.66645 13.5661 7.73611
1 7.35761 21.4152 8.40399
1 4.41562 8.00113 15.3114
1 0.741889 2.17527 9.34543
1 10.9254 24.4316 17.9225
1 2.47284 25.0524 8.07595
1 20.6501 19.2925 24.5847
1 23.8805 11.7973 14.3691
1 23.3839 12.1988 18.2414
1 6.55483 25.2876 7.01736
1 14.2073 10.1145 1.19903
1 10.1418 9.65113 11.5827
1 9.54588 23.1504 1.70039
1 1.41038 23.7559 21.9944
1 9.11476 6.25262 0.650604
1 25.4304 2.50329 15.8847
1 3.22652 0.628669 14.4077
1 6.90136 3.97192 25.1924
1 11.8992 17.5815 25.39
1 22.722 11.9314 7.81787
1 9.81559 19.5332 23.3011
1 2.17192 23.1352 2.32791
1 20.0193 7.39082 0.505583
1 15.8364 16.6697 16.744
1 18.4953 21.3921 6.10389
1 22.0428 0.420197 23.9123
1 17.6247 11.8588 18.7924
1 12.8334 18.124 9.18799
1 0.933132 12.165 17.8647
1 4.28002 17.6691 17.2288
1 3.72522 6.229 12.5591
1 14.2761 20.3939 24.1518
1 8.61788 21.2239 18.6997
1 10.7181 2.73459 20.5196
1 18.059 15.7266 7.27567
1 4.6697 11.4608 24.8543
1 9.69436 18.7366 19.8767
1 23.6458 17.0144 25.629
1 4.03236 19.4607 20.2402
1 16.5822 21.3553 18.0528
1 4.58191 7.7057 8.61102
1 9.36089 7.72221 7.81067
1 20.3852 22.214 8.67245
1 6.02985 15.8991 6.44501
1 12.5517 21.0557 3.1587
1 14.7649 5.65089 15.9521
1 6.90104 21.7867 16.1351
1 16.3066 7.03277 5.48414
1 21.9593 12.6202 24.4568
1 11.5485 24.8979 14.8752
1 16.7508 8.72786 13.6411
1 7.98192 4.32693 11.2399
1 20.2612 7.00114 21.7162
1 16.4758 22.9363 24.7101
1 20.0575 19.3074 4.23459
1 16.854 15.0161 4.13264
1 17.569 0.722142 2.25394
1 20.8975 3.46947 18.5214
1 0.340955 7.09594 21.3412
1 14.6499 11.5806 20.1842
1 21.6856 23.0527 0.907039
1 20.083 6.81411 17.3937
1 3.39513 16.4715 7.86312
1 15.4964 10.7238 5.28733
1 9.24653 7.87549 14.8981
1 13.7608 24.0489 23.6558
1 25.2285 5.89662 2.95257
1 17.0058 1.91139 14.705
1 9.84912 14.0701 12.9536
1 7.61543 24.8911 3.92779
1 10.9026 19.0387 11.3167
1 10.6606 15.3424 22.5109
1 6.55601 14.3094 12.5218
1 23.7883 15.1926 16.6123
1 3.26573 13.7808 0.795543
1 23.1878 24.8192 4.29631
1 5.30816 22.6888 18.6736
1 22.6421 5.56034 0.989338
1 6.27787 1.19653 24.026
1 1.18902 5.83869 6.78651
1 8.56604 18.4246 9.41747
1 5.26443 5.82491 18.1154
1 24.9282 13.112 10.0183
1 16.0205 12.3631 12.5124
1 17.5803 17.8168 1.43673
1 1.39342 21.1257 20.3351
1 6.30225 1.22514 12.9941
1 15.4904 24.3411 21.3607
1 0.45077 10.5025 6.88379
1 14.5052 17.3211 23.93
1 7.49713 7.37984 11.2958
1 23.0081 11.271 3.24801
1 18.2807 0.923367 11.5317
1 7.12521 17.2197 15.0487
1 17.4077 9.26728 0.248527
1 11.9568 25.2431 0.0809198
1 2.24354 17.3463 13.2328
1 25.2829 10.137 11.6742
1 12.2906 7.64865 6.28902
1 11.3694 2.81387 8.16618
1 19.7792 19.6492 14.4035
1 9.05092 16.9285 24.4206
1 21.1464 22.2404 18.8638
1 18.4702 21.6445 16.0157
1 8.69778 12.5013 2.95528
1 8.46122 11.31 13.7003
1 9.61144 20.8558 4.1907
1 8.27001 6.31608 20.31
1 12.3595 22.7338 12.135
1 18.0008 8.87256 19.1272
1 3.06598 21.2904 11.7031
1 23.6675 3.19236 2.61026
1 23.9185 2.96897 25.0469
1 18.7354 7.33767 7.67779
1 4.39967 5.28556 5.70633
1 14.2035 0.0571157 3.8994
1 5.80335 15.4073 18.7393
1 15.0301 20.6868 20.6474
1 12.6044 1.49978 23.0584
1 18.2541 16.1219 10.3934
1 6.76442 20.3364 21.2
1 5.76659 12.4819 5.14219
1 11.4779 12.0118 1.12194
1 20.0806 2.90939 14.0515
1 24.9424 20.4966 4.24498
1 6.46015 3.51482 21.3355
1 1.34361 2.9755 3.69197